MAPAXES
   0.45606369E+06   0.59394410E+07   0.45606369E+06   0.59265510E+07
   0.46748934E+06   0.59265510E+07
/
SPECGRID
          46          73          29           1
/
